                         Program Version 3.0.3 - RELEASE   -
|  1> !RHF ZINDO/S TightSCF DIIS NoRICO NoMOPrint
|  2> %cis NRoots 10
|  3> MaxDim 25
|  4> triplets true
|  5> end
|  6>
|  7> * xyz 0 1
|  8> N -1.83801 -2.05332 0.59653
|  9> C -2.36617 -0.85278 0.11971
| 10> C -3.76124 -0.72451 -0.02945
| 11> C -4.30270 0.47695 -0.46278
| 12> C -3.47602 1.55992 -0.76624
| 13> C -2.09799 1.43894 -0.62205
| 14> C -1.52651 0.24798 -0.16530
| 15> C -0.08640 0.17547 -0.00920
| 16> N 0.77423 0.64230 -0.98832
| 17> C 2.03448 0.45120 -0.53727
| 18> N 1.98609 -0.15438 0.75495
| 19> C 0.64693 -0.32068 1.08576
| 20> C 3.13281 -0.45958 1.45271
| 21> C 4.34756 -0.16597 0.88599
| 22> C 4.43126 0.44002 -0.40033
| 23> C 3.30048 0.74344 -1.10733
| 24> H -0.85878 -2.21100 0.45403
| 25> H -2.40772 -2.87282 0.54104
| 26> H -4.40721 -1.56519 0.19949
| 27> H -5.38292 0.57380 -0.57258
| 28> H -3.90627 2.49212 -1.11731
| 29> H -1.44254 2.27797 -0.87130
| 30> H 0.30667 -0.71734 2.01753
| 31> H 3.01862 -0.92364 2.43423
| 32> H 5.26879 -0.39409 1.41957
| 33> H 5.41849 0.65763 -0.80768
| 34> H 3.31996 1.20606 -2.09492
| 35> **                         ****END OF INPUT****

CARTESIAN COORDINATES (ANGSTROEM)
---------------------------------
  N     -1.838010   -2.053320    0.596530
  C     -2.366170   -0.852780    0.119710
  C     -3.761240   -0.724510   -0.029450
  C     -4.302700    0.476950   -0.462780
  C     -3.476020    1.559920   -0.766240
  C     -2.097990    1.438940   -0.622050
  C     -1.526510    0.247980   -0.165300
  C     -0.086400    0.175470   -0.009200
  N      0.774230    0.642300   -0.988320
  C      2.034480    0.451200   -0.537270
  N      1.986090   -0.154380    0.754950
  C      0.646930   -0.320680    1.085760
  C      3.132810   -0.459580    1.452710
  C      4.347560   -0.165970    0.885990
  C      4.431260    0.440020   -0.400330
  C      3.300480    0.743440   -1.107330
  H     -0.858780   -2.211000    0.454030
  H     -2.407720   -2.872820    0.541040
  H     -4.407210   -1.565190    0.199490
  H     -5.382920    0.573800   -0.572580
  H     -3.906270    2.492120   -1.117310
  H     -1.442540    2.277970   -0.871300
  H      0.306670   -0.717340    2.017530
  H      3.018620   -0.923640    2.434230
  H      5.268790   -0.394090    1.419570
  H      5.418490    0.657630   -0.807680
  H      3.319960    1.206060   -2.094920

 Total Charge           Charge          ....    0
 Multiplicity           Mult            ....    1
 Number of Electrons    NEL             ....   78
 Basis Dimension        Dim             ....   75

ORBITAL ENERGIES
----------------

  NO   OCC          E(Eh)            E(eV)
   0   2.0000      -1.827092       -49.7177
   1   2.0000      -1.646569       -44.8054
   2   2.0000      -1.543336       -41.9963
   3   2.0000      -1.463940       -39.8358
   4   2.0000      -1.345898       -36.6237
   5   2.0000      -1.277773       -34.7700
   6   2.0000      -1.156119       -31.4596
   7   2.0000      -1.129029       -30.7224
   8   2.0000      -1.109620       -30.1943
   9   2.0000      -1.015245       -27.6262
  10   2.0000      -0.969895       -26.3922
  11   2.0000      -0.968349       -26.3501
  12   2.0000      -0.891677       -24.2638
  13   2.0000      -0.868372       -23.6296
  14   2.0000      -0.798184       -21.7197
  15   2.0000      -0.775230       -21.0951
  16   2.0000      -0.743155       -20.2223
  17   2.0000      -0.682913       -18.5830
  18   2.0000      -0.681402       -18.5419
  19   2.0000      -0.633251       -17.2316
  20   2.0000      -0.614108       -16.7107
  21   2.0000      -0.602859       -16.4046
  22   2.0000      -0.591522       -16.0961
  23   2.0000      -0.571135       -15.5414
  24   2.0000      -0.570190       -15.5157
  25   2.0000      -0.534679       -14.5493
  26   2.0000      -0.521721       -14.1968
  27   2.0000      -0.507903       -13.8207
  28   2.0000      -0.485879       -13.2214
  29   2.0000      -0.466768       -12.7014
  30   2.0000      -0.441872       -12.0240
  31   2.0000      -0.436744       -11.8844
  32   2.0000      -0.422975       -11.5097
  33   2.0000      -0.420096       -11.4314
  34   2.0000      -0.388061       -10.5597
  35   2.0000      -0.339759        -9.2453
  36   2.0000      -0.311957        -8.4888
  37   2.0000      -0.295153        -8.0315
  38   2.0000      -0.275142        -7.4870
  39   0.0000      -0.011205        -0.3049
  40   0.0000       0.013850         0.3769
  41   0.0000       0.030350         0.8259
  42   0.0000       0.034708         0.9445
  43   0.0000       0.073866         2.0100

MULLIKEN ATOMIC CHARGES
-----------------------
   0 N :   -0.523884
   1 C :    0.137656
   2 C :   -0.092924
   3 C :   -0.072158
   4 C :   -0.089121
   5 C :   -0.064865
   6 C :    0.016790
   7 C :    0.151003
   8 N :   -0.505713
   9 C :    0.286440
  10 N :   -0.217728
  11 C :   -0.052808
  12 C :    0.055812
  13 C :   -0.082993
  14 C :   -0.055841
  15 C :   -0.060084
  16 H :    0.219885
  17 H :    0.214112
  18 H :    0.068909
  19 H :    0.068443
  20 H :    0.068964
  21 H :    0.081506
  22 H :    0.098171
  23 H :    0.102705
  24 H :    0.075669
  25 H :    0.080619
  26 H :    0.091434
Sum of atomic charges:   -0.0000000

LOEWDIN ATOMIC CHARGES
----------------------
   0 N :   -0.342121
   1 C :    0.103305
   2 C :   -0.062304
   3 C :   -0.030623
   4 C :   -0.055279
   5 C :   -0.021874
   6 C :    0.006951
   7 C :    0.117050
   8 N :   -0.436186
   9 C :    0.207419
  10 N :   -0.031912
  11 C :   -0.077095
  12 C :    0.053023
  13 C :   -0.056467
  14 C :   -0.009652
  15 C :   -0.029814
  16 H :    0.152915
  17 H :    0.147853
  18 H :    0.030418
  19 H :    0.029861
  20 H :    0.030221
  21 H :    0.039386
  22 H :    0.055774
  23 H :    0.056688
  24 H :    0.035709
  25 H :    0.038960
  26 H :    0.047794

  Mayer bond orders larger than 0.1
B(  0-N ,  1-C ) :   1.0151 B(  0-N , 16-H ) :   0.9131 B(  0-N , 17-H ) :   0.9188
B(  1-C ,  2-C ) :   1.3567 B(  1-C ,  4-C ) :   0.1051 B(  1-C ,  6-C ) :   1.3432
B(  2-C ,  3-C ) :   1.4034 B(  2-C ,  5-C ) :   0.1056 B(  2-C , 18-H ) :   0.9473
B(  3-C ,  4-C ) :   1.3739 B(  3-C ,  6-C ) :   0.1054 B(  3-C , 19-H ) :   0.9474
B(  4-C ,  5-C ) :   1.3957 B(  4-C , 20-H ) :   0.9466 B(  5-C ,  6-C ) :   1.3692
B(  5-C , 21-H ) :   0.9446 B(  6-C ,  7-C ) :   0.9967 B(  7-C ,  8-N ) :   1.2366
B(  7-C , 11-C ) :   1.5348 B(  8-N ,  9-C ) :   1.4027 B(  9-C , 10-N ) :   1.1175
B(  9-C , 15-C ) :   1.1772 B( 10-N , 11-C ) :   1.0655 B( 10-N , 12-C ) :   1.0920
B( 11-C , 22-H ) :   0.9327 B( 12-C , 13-C ) :   1.6058 B( 12-C , 15-C ) :   0.1096
B( 12-C , 23-H ) :   0.9447 B( 13-C , 14-C ) :   1.1968 B( 13-C , 24-H ) :   0.9465
B( 14-C , 15-C ) :   1.5771 B( 14-C , 25-H ) :   0.9469 B( 15-C , 26-H ) :   0.9444

-----------------------------------------------------------------------------
         ABSORPTION SPECTRUM VIA TRANSITION ELECTRIC DIPOLE MOMENTS
-----------------------------------------------------------------------------
State   Energy  Wavelength   fosc         T2         TX        TY        TZ
        (cm-1)    (nm)                  (au**2)     (au)      (au)      (au)
-----------------------------------------------------------------------------
   1   28240.3    354.1   0.249192695   2.90497  -1.69648   0.01432  -0.16350
   2   30851.5    324.1   0.002662047   0.02841  -0.01770   0.11378  -0.12307
   3   33658.5    297.1   0.095761691   0.93664  -0.95050  -0.09219  -0.15715
   4   36074.7    277.2   0.125960217   1.14949   0.96062   0.25378   0.40287
   5   37103.0    269.5   0.280274621   2.48685  -0.74121  -0.59894   1.25648
   6   39858.6    250.9   0.149663008   1.23614  -1.00985  -0.34174   0.31552
   7   40676.8    245.8   0.319893721   2.58901   1.56537  -0.35926  -0.09786
   8   41026.7    243.7   0.550523676   4.41759  -1.80026   0.78003  -0.75380
   9   42913.1    233.0   0.015009679   0.11515  -0.07582  -0.30177  -0.13541
  10   43453.7    230.1   0.028273552   0.21420  -0.38174  -0.01123   0.26144
  11   12416.9    805.4   spin forbidden (mult=3)
  12   15575.3    642.0   spin forbidden (mult=3)
  13   17402.4    574.6   spin forbidden (mult=3)
  14   22527.4    443.9   spin forbidden (mult=3)
  15   26020.5    384.3   spin forbidden (mult=3)
  16   26815.6    372.9   spin forbidden (mult=3)
  17   27732.9    360.6   spin forbidden (mult=3)
  18   29256.3    341.8   spin forbidden (mult=3)
  19   33513.8    298.4   spin forbidden (mult=3)
  20   34882.5    286.7   spin forbidden (mult=3)

FINAL SINGLE POINT ENERGY        12.231865256376

DIPOLE MOMENT
-------------
                                X             Y             Z
Electronic contribution:      6.89035       1.72939      -2.83749
Nuclear contribution   :     -1.90054      -3.80203       2.23933
                        -----------------------------------------
Total Dipole Moment    :      4.98981      -2.07265      -0.59816
                        -----------------------------------------
Magnitude (a.u.)       :      5.43616
Magnitude (Debye)      :     13.81763

                             ****ORCA TERMINATED NORMALLY****
TOTAL RUN TIME: 0 days 0 hours 0 minutes 2 seconds 132 msec
