                         Program Version 3.0.3 - RELEASE   -
|  1> !RHF ZINDO/S TightSCF DIIS NoRICO NoMOPrint
|  2> %cis NRoots 10
|  3> MaxDim 25
|  4> triplets true
|  5> end
|  6>
|  7> * xyz 0 1
|  8> C -4.10987 -1.12424 0.68999
|  9> N -3.55263 0.22522 0.50706
| 10> C -2.26672 0.32486 -0.02815
| 11> C -1.34863 -0.74203 0.11572
| 12> C -0.02892 -0.58682 -0.27519
| 13> C 0.41341 0.61645 -0.82978
| 14> C -0.49685 1.66083 -1.01574
| 15> C -1.81845 1.52711 -0.61989
| 16> C 1.81111 0.80871 -1.25574
| 17> O 2.09745 1.54869 -2.17050
| 18> C 2.88100 0.07438 -0.52755
| 19> C 2.83191 -0.07621 0.85830
| 20> C 3.85728 -0.75186 1.51588
| 21> C 4.92808 -1.27259 0.78947
| 22> C 4.98028 -1.11078 -0.59424
| 23> C 3.95933 -0.43029 -1.25447
| 24> C -4.55575 1.21037 0.07487
| 25> H -3.51090 -1.67090 1.44208
| 26> H -4.13181 -1.71144 -0.24315
| 27> H -5.13718 -1.06626 1.08686
| 28> H -1.66499 -1.68821 0.54162
| 29> H 0.66907 -1.41937 -0.15611
| 30> H -0.15610 2.59080 -1.48204
| 31> H -2.49923 2.35786 -0.77124
| 32> H 1.99739 0.33945 1.42461
| 33> H 3.82262 -0.87144 2.59648
| 34> H 5.72750 -1.80260 1.30419
| 35> H 5.81953 -1.51053 -1.15896
| 36> H 4.00065 -0.28091 -2.33508
| 37> H -4.72718 1.20577 -1.01431
| 38> H -4.23406 2.22298 0.38280
| 39> H -5.51890 1.02302 0.57926
| 40> **                         ****END OF INPUT****

CARTESIAN COORDINATES (ANGSTROEM)
---------------------------------
  C     -4.109870   -1.124240    0.689990
  N     -3.552630    0.225220    0.507060
  C     -2.266720    0.324860   -0.028150
  C     -1.348630   -0.742030    0.115720
  C     -0.028920   -0.586820   -0.275190
  C      0.413410    0.616450   -0.829780
  C     -0.496850    1.660830   -1.015740
  C     -1.818450    1.527110   -0.619890
  C      1.811110    0.808710   -1.255740
  O      2.097450    1.548690   -2.170500
  C      2.881000    0.074380   -0.527550
  C      2.831910   -0.076210    0.858300
  C      3.857280   -0.751860    1.515880
  C      4.928080   -1.272590    0.789470
  C      4.980280   -1.110780   -0.594240
  C      3.959330   -0.430290   -1.254470
  C     -4.555750    1.210370    0.074870
  H     -3.510900   -1.670900    1.442080
  H     -4.131810   -1.711440   -0.243150
  H     -5.137180   -1.066260    1.086860
  H     -1.664990   -1.688210    0.541620
  H      0.669070   -1.419370   -0.156110
  H     -0.156100    2.590800   -1.482040
  H     -2.499230    2.357860   -0.771240
  H      1.997390    0.339450    1.424610
  H      3.822620   -0.871440    2.596480
  H      5.727500   -1.802600    1.304190
  H      5.819530   -1.510530   -1.158960
  H      4.000650   -0.280910   -2.335080
  H     -4.727180    1.205770   -1.014310
  H     -4.234060    2.222980    0.382800
  H     -5.518900    1.023020    0.579260

 Total Charge           Charge          ....    0
 Multiplicity           Mult            ....    1
 Number of Electrons    NEL             ....   86
 Basis Dimension        Dim             ....   83

ORBITAL ENERGIES
----------------

  NO   OCC          E(Eh)            E(eV)
   0   2.0000      -1.710514       -46.5454
   1   2.0000      -1.666409       -45.3453
   2   2.0000      -1.586296       -43.1653
   3   2.0000      -1.529150       -41.6103
   4   2.0000      -1.299261       -35.3547
   5   2.0000      -1.261509       -34.3274
   6   2.0000      -1.228440       -33.4275
   7   2.0000      -1.197460       -32.5845
   8   2.0000      -1.148446       -31.2508
   9   2.0000      -1.075645       -29.2698
  10   2.0000      -0.985272       -26.8106
  11   2.0000      -0.944618       -25.7044
  12   2.0000      -0.919920       -25.0323
  13   2.0000      -0.902175       -24.5494
  14   2.0000      -0.887878       -24.1604
  15   2.0000      -0.855968       -23.2921
  16   2.0000      -0.738394       -20.0927
  17   2.0000      -0.731769       -19.9125
  18   2.0000      -0.689016       -18.7491
  19   2.0000      -0.677204       -18.4277
  20   2.0000      -0.652353       -17.7514
  21   2.0000      -0.637581       -17.3495
  22   2.0000      -0.616416       -16.7735
  23   2.0000      -0.605336       -16.4720
  24   2.0000      -0.585335       -15.9278
  25   2.0000      -0.580240       -15.7891
  26   2.0000      -0.574358       -15.6291
  27   2.0000      -0.558626       -15.2010
  28   2.0000      -0.547971       -14.9110
  29   2.0000      -0.514309       -13.9950
  30   2.0000      -0.507530       -13.8106
  31   2.0000      -0.503366       -13.6973
  32   2.0000      -0.495416       -13.4810
  33   2.0000      -0.479219       -13.0402
  34   2.0000      -0.470941       -12.8150
  35   2.0000      -0.457346       -12.4450
  36   2.0000      -0.448516       -12.2047
  37   2.0000      -0.397818       -10.8252
  38   2.0000      -0.370085       -10.0705
  39   2.0000      -0.348823        -9.4919
  40   2.0000      -0.340293        -9.2598
  41   2.0000      -0.335607        -9.1323
  42   2.0000      -0.304916        -8.2972
  43   0.0000      -0.018888        -0.5140
  44   0.0000       0.015299         0.4163
  45   0.0000       0.017557         0.4778
  46   0.0000       0.023135         0.6295
  47   0.0000       0.056853         1.5470

MULLIKEN ATOMIC CHARGES
-----------------------
   0 C :   -0.036375
   1 N :   -0.365033
   2 C :    0.160884
   3 C :   -0.095323
   4 C :   -0.062061
   5 C :    0.005614
   6 C :   -0.040623
   7 C :   -0.093222
   8 C :    0.472449
   9 O :   -0.724950
  10 C :    0.026634
  11 C :   -0.066802
  12 C :   -0.072953
  13 C :   -0.064473
  14 C :   -0.070399
  15 C :   -0.047240
  16 C :   -0.036457
  17 H :    0.060193
  18 H :    0.067620
  19 H :    0.057933
  20 H :    0.076388
  21 H :    0.076831
  22 H :    0.101369
  23 H :    0.079438
  24 H :    0.078066
  25 H :    0.073661
  26 H :    0.075294
  27 H :    0.076820
  28 H :    0.099561
  29 H :    0.068718
  30 H :    0.061431
  31 H :    0.057008
Sum of atomic charges:   -0.0000000

LOEWDIN ATOMIC CHARGES
----------------------
   0 C :    0.036676
   1 N :   -0.243281
   2 C :    0.132216
   3 C :   -0.069120
   4 C :   -0.013664
   5 C :   -0.012282
   6 C :    0.007894
   7 C :   -0.065272
   8 C :    0.402616
   9 O :   -0.628641
  10 C :    0.018774
  11 C :   -0.023238
  12 C :   -0.035818
  13 C :   -0.021971
  14 C :   -0.031307
  15 C :   -0.004065
  16 C :    0.036555
  17 H :    0.024697
  18 H :    0.029517
  19 H :    0.022000
  20 H :    0.036904
  21 H :    0.036421
  22 H :    0.054125
  23 H :    0.039044
  24 H :    0.037169
  25 H :    0.033611
  26 H :    0.034707
  27 H :    0.035893
  28 H :    0.052645
  29 H :    0.030377
  30 H :    0.025485
  31 H :    0.021332

  Mayer bond orders larger than 0.1
B(  0-C ,  1-N ) :   0.9481 B(  0-C , 17-H ) :   0.9668 B(  0-C , 18-H ) :   0.9669
B(  0-C , 19-H ) :   0.9648 B(  1-N ,  2-C ) :   1.0362 B(  1-N , 16-C ) :   0.9486
B(  2-C ,  3-C ) :   1.3326 B(  2-C ,  5-C ) :   0.1000 B(  2-C ,  7-C ) :   1.3412
B(  3-C ,  4-C ) :   1.4192 B(  3-C , 20-H ) :   0.9436 B(  4-C ,  5-C ) :   1.3315
B(  4-C , 21-H ) :   0.9439 B(  5-C ,  6-C ) :   1.3435 B(  5-C ,  8-C ) :   1.0354
B(  6-C ,  7-C ) :   1.4120 B(  6-C , 22-H ) :   0.9425 B(  7-C , 23-H ) :   0.9433
B(  8-C ,  9-O ) :   1.5633 B(  8-C , 10-C ) :   1.0123 B( 10-C , 11-C ) :   1.3520
B( 10-C , 13-C ) :   0.1091 B( 10-C , 15-C ) :   1.3652 B( 11-C , 12-C ) :   1.3979
B( 11-C , 14-C ) :   0.1111 B( 11-C , 24-H ) :   0.9440 B( 12-C , 13-C ) :   1.3846
B( 12-C , 15-C ) :   0.1089 B( 12-C , 25-H ) :   0.9461 B( 13-C , 14-C ) :   1.3898
B( 13-C , 26-H ) :   0.9463 B( 14-C , 15-C ) :   1.3929 B( 14-C , 27-H ) :   0.9457
B( 15-C , 28-H ) :   0.9426 B( 16-C , 29-H ) :   0.9664 B( 16-C , 30-H ) :   0.9666
B( 16-C , 31-H ) :   0.9652

-----------------------------------------------------------------------------
         ABSORPTION SPECTRUM VIA TRANSITION ELECTRIC DIPOLE MOMENTS
-----------------------------------------------------------------------------
State   Energy  Wavelength   fosc         T2         TX        TY        TZ
        (cm-1)    (nm)                  (au**2)     (au)      (au)      (au)
-----------------------------------------------------------------------------
   1   27683.1    361.2   0.001796843   0.02137   0.07417   0.08139  -0.09614
   2   33734.2    296.4   0.356599392   3.48005  -1.81218  -0.11418   0.42783
   3   34545.0    289.5   0.004226770   0.04028  -0.14489   0.12870   0.05220
   4   36670.7    272.7   0.005740470   0.05154  -0.13256  -0.01203  -0.18390
   5   39320.5    254.3   0.190271735   1.59305   0.85332  -0.68068   0.63369
   6   42436.1    235.6   0.024278223   0.18835  -0.39197   0.18624   0.00509
   7   43676.4    229.0   0.354471171   2.67184  -0.41338   1.47537  -0.56942
   8   45201.0    221.2   0.207319385   1.50997  -1.18652   0.31817  -0.03026
   9   46123.4    216.8   0.229053947   1.63490  -0.39605   0.42453   1.13922
  10   47637.6    209.9   0.452861736   3.12962  -1.72780  -0.06572   0.37418
  11   16720.8    598.1   spin forbidden (mult=3)
  12   17685.0    565.5   spin forbidden (mult=3)
  13   24983.1    400.3   spin forbidden (mult=3)
  14   27563.5    362.8   spin forbidden (mult=3)
  15   27941.4    357.9   spin forbidden (mult=3)
  16   29313.5    341.1   spin forbidden (mult=3)
  17   29646.8    337.3   spin forbidden (mult=3)
  18   32614.9    306.6   spin forbidden (mult=3)
  19   34295.9    291.6   spin forbidden (mult=3)
  20   36671.9    272.7   spin forbidden (mult=3)

FINAL SINGLE POINT ENERGY        10.139900431480

DIPOLE MOMENT
-------------
                                X             Y             Z
Electronic contribution:     36.31812      13.01045     -17.33632
Nuclear contribution   :    -21.39208      -3.25573       5.26670
                        -----------------------------------------
Total Dipole Moment    :     14.92604       9.75472     -12.06961
                        -----------------------------------------
Magnitude (a.u.)       :     21.53176
Magnitude (Debye)      :     54.72939

                             ****ORCA TERMINATED NORMALLY****
TOTAL RUN TIME: 0 days 0 hours 0 minutes 2 seconds 407 msec
