                         Program Version 3.0.3 - RELEASE   -
|  1> !RHF ZINDO/S TightSCF DIIS NoRICO NoMOPrint
|  2> %cis NRoots 10
|  3> MaxDim 25
|  4> triplets true
|  5> end
|  6>
|  7> * xyz 0 1
|  8> N 2.93292 -2.83086 -1.61842
|  9> C 2.83602 -1.83802 -1.02777
| 10> C 2.74618 -0.62561 -0.31523
| 11> C 1.61165 0.07555 0.00046
| 12> N 0.31051 -0.20831 -0.33580
| 13> C -0.06868 -1.53791 -0.78857
| 14> Cl 0.36104 -2.69468 0.53815
| 15> C -1.55529 -1.70300 -1.06180
| 16> C -2.37485 -1.18654 0.12208
| 17> C -2.01435 0.24172 0.36134
| 18> C -0.71501 0.70074 0.08295
| 19> C -0.42673 2.07001 0.17197
| 20> C -1.39977 2.95490 0.62423
| 21> C -2.66752 2.49163 0.96868
| 22> C -2.97446 1.14189 0.82048
| 23> C 4.04642 -0.09984 0.11205
| 24> O 5.14884 -0.49622 -0.15402
| 25> O 3.89330 0.99774 0.91719
| 26> H 1.74042 1.02056 0.58333
| 27> H 0.55312 -1.84907 -1.66871
| 28> H -1.79309 -2.76746 -1.27320
| 29> H -1.83411 -1.15291 -1.98750
| 30> H -2.18852 -1.79432 1.03672
| 31> H -3.45937 -1.30452 -0.08048
| 32> H 0.54701 2.46179 -0.12323
| 33> H -1.16596 4.01667 0.70507
| 34> H -3.42015 3.18548 1.33968
| 35> H -3.97652 0.78532 1.06057
| 36> H 4.75278 1.36262 1.23967
| 37> **                         ****END OF INPUT****

CARTESIAN COORDINATES (ANGSTROEM)
---------------------------------
  N      2.932920   -2.830860   -1.618420
  C      2.836020   -1.838020   -1.027770
  C      2.746180   -0.625610   -0.315230
  C      1.611650    0.075550    0.000460
  N      0.310510   -0.208310   -0.335800
  C     -0.068680   -1.537910   -0.788570
  Cl     0.361040   -2.694680    0.538150
  C     -1.555290   -1.703000   -1.061800
  C     -2.374850   -1.186540    0.122080
  C     -2.014350    0.241720    0.361340
  C     -0.715010    0.700740    0.082950
  C     -0.426730    2.070010    0.171970
  C     -1.399770    2.954900    0.624230
  C     -2.667520    2.491630    0.968680
  C     -2.974460    1.141890    0.820480
  C      4.046420   -0.099840    0.112050
  O      5.148840   -0.496220   -0.154020
  O      3.893300    0.997740    0.917190
  H      1.740420    1.020560    0.583330
  H      0.553120   -1.849070   -1.668710
  H     -1.793090   -2.767460   -1.273200
  H     -1.834110   -1.152910   -1.987500
  H     -2.188520   -1.794320    1.036720
  H     -3.459370   -1.304520   -0.080480
  H      0.547010    2.461790   -0.123230
  H     -1.165960    4.016670    0.705070
  H     -3.420150    3.185480    1.339680
  H     -3.976520    0.785320    1.060570
  H      4.752780    1.362620    1.239670

 Total Charge           Charge          ....    0
 Multiplicity           Mult            ....    1
 Number of Electrons    NEL             ....   92
 Basis Dimension        Dim             ....   83

ORBITAL ENERGIES
----------------

  NO   OCC          E(Eh)            E(eV)
   0   2.0000      -1.779338       -48.4182
   1   2.0000      -1.717437       -46.7338
   2   2.0000      -1.594933       -43.4003
   3   2.0000      -1.496582       -40.7241
   4   2.0000      -1.460175       -39.7334
   5   2.0000      -1.398558       -38.0567
   6   2.0000      -1.297164       -35.2976
   7   2.0000      -1.250698       -34.0332
   8   2.0000      -1.216499       -33.1026
   9   2.0000      -1.106615       -30.1125
  10   2.0000      -1.046139       -28.4669
  11   2.0000      -1.038445       -28.2575
  12   2.0000      -0.950287       -25.8586
  13   2.0000      -0.928343       -25.2615
  14   2.0000      -0.919354       -25.0169
  15   2.0000      -0.835678       -22.7400
  16   2.0000      -0.801816       -21.8185
  17   2.0000      -0.779569       -21.2132
  18   2.0000      -0.757356       -20.6087
  19   2.0000      -0.724067       -19.7029
  20   2.0000      -0.691318       -18.8117
  21   2.0000      -0.648323       -17.6418
  22   2.0000      -0.644623       -17.5411
  23   2.0000      -0.623820       -16.9750
  24   2.0000      -0.620470       -16.8838
  25   2.0000      -0.609940       -16.5973
  26   2.0000      -0.608277       -16.5521
  27   2.0000      -0.586601       -15.9622
  28   2.0000      -0.579598       -15.7717
  29   2.0000      -0.544193       -14.8082
  30   2.0000      -0.535317       -14.5667
  31   2.0000      -0.526201       -14.3187
  32   2.0000      -0.510929       -13.9031
  33   2.0000      -0.502137       -13.6638
  34   2.0000      -0.490744       -13.3538
  35   2.0000      -0.481978       -13.1153
  36   2.0000      -0.478854       -13.0303
  37   2.0000      -0.476359       -12.9624
  38   2.0000      -0.467694       -12.7266
  39   2.0000      -0.459606       -12.5065
  40   2.0000      -0.453333       -12.3358
  41   2.0000      -0.421818       -11.4783
  42   2.0000      -0.419307       -11.4099
  43   2.0000      -0.367791       -10.0081
  44   2.0000      -0.350233        -9.5303
  45   2.0000      -0.321194        -8.7401
  46   0.0000      -0.043064        -1.1718
  47   0.0000       0.000593         0.0161
  48   0.0000       0.002818         0.0767
  49   0.0000       0.012582         0.3424
  50   0.0000       0.022784         0.6200

MULLIKEN ATOMIC CHARGES
-----------------------
   0 N :   -0.479704
   1 C :    0.321386
   2 C :    0.043258
   3 C :    0.149455
   4 N :   -0.299492
   5 C :    0.247655
   6 Cl:   -0.323572
   7 C :   -0.064879
   8 C :   -0.076291
   9 C :    0.007319
  10 C :    0.105548
  11 C :   -0.078228
  12 C :   -0.070616
  13 C :   -0.070037
  14 C :   -0.074755
  15 C :    0.711314
  16 O :   -0.695486
  17 O :   -0.553782
  18 H :    0.133551
  19 H :    0.139300
  20 H :    0.067834
  21 H :    0.060216
  22 H :    0.077394
  23 H :    0.055996
  24 H :    0.076772
  25 H :    0.078185
  26 H :    0.078527
  27 H :    0.077986
  28 H :    0.355147
Sum of atomic charges:   -0.0000000

LOEWDIN ATOMIC CHARGES
----------------------
   0 N :   -0.394255
   1 C :    0.241105
   2 C :   -0.005675
   3 C :    0.172466
   4 N :   -0.155933
   5 C :    0.239749
   6 Cl:   -0.280443
   7 C :   -0.003781
   8 C :   -0.011127
   9 C :    0.008423
  10 C :    0.072386
  11 C :   -0.044315
  12 C :   -0.033318
  13 C :   -0.030989
  14 C :   -0.038021
  15 C :    0.566171
  16 O :   -0.598917
  17 O :   -0.411371
  18 H :    0.081262
  19 H :    0.083697
  20 H :    0.028569
  21 H :    0.025313
  22 H :    0.039785
  23 H :    0.020083
  24 H :    0.037553
  25 H :    0.037234
  26 H :    0.037304
  27 H :    0.036896
  28 H :    0.280149

  Mayer bond orders larger than 0.1
B(  0-N ,  1-C ) :   2.7312 B(  1-C ,  2-C ) :   1.0338 B(  2-C ,  3-C ) :   1.5758
B(  2-C , 15-C ) :   1.0636 B(  3-C ,  4-N ) :   1.1155 B(  3-C , 18-H ) :   0.9347
B(  4-N ,  5-C ) :   0.9607 B(  4-N , 10-C ) :   0.9625 B(  5-C ,  6-Cl) :   0.8415
B(  5-C ,  7-C ) :   0.9659 B(  5-C , 19-H ) :   0.9343 B(  7-C ,  8-C ) :   0.9682
B(  7-C , 20-H ) :   0.9606 B(  7-C , 21-H ) :   0.9616 B(  8-C ,  9-C ) :   0.9746
B(  8-C , 22-H ) :   0.9571 B(  8-C , 23-H ) :   0.9630 B(  9-C , 10-C ) :   1.3654
B(  9-C , 12-C ) :   0.1090 B(  9-C , 14-C ) :   1.3879 B( 10-C , 11-C ) :   1.3672
B( 10-C , 13-C ) :   0.1104 B( 11-C , 12-C ) :   1.3937 B( 11-C , 14-C ) :   0.1082
B( 11-C , 24-H ) :   0.9432 B( 12-C , 13-C ) :   1.3842 B( 12-C , 25-H ) :   0.9458
B( 13-C , 14-C ) :   1.3890 B( 13-C , 26-H ) :   0.9455 B( 14-C , 27-H ) :   0.9446
B( 15-C , 16-O ) :   1.5747 B( 15-C , 17-O ) :   0.9992 B( 17-O , 28-H ) :   0.8548

-----------------------------------------------------------------------------
         ABSORPTION SPECTRUM VIA TRANSITION ELECTRIC DIPOLE MOMENTS
-----------------------------------------------------------------------------
State   Energy  Wavelength   fosc         T2         TX        TY        TZ
        (cm-1)    (nm)                  (au**2)     (au)      (au)      (au)
-----------------------------------------------------------------------------
   1   31070.5    321.8   0.529096141   5.60612   2.18229  -0.83332  -0.38640
   2   34275.1    291.8   0.002021362   0.01942   0.07895  -0.09797   0.05986
   3   35190.0    284.2   0.005131840   0.04801  -0.08148  -0.20081  -0.03235
   4   38919.1    256.9   0.015959896   0.13500  -0.30921   0.18592   0.06945
   5   39922.0    250.5   0.000243470   0.00201  -0.01659  -0.03680  -0.01945
   6   41204.1    242.7   0.041056997   0.32804   0.44976  -0.34955   0.05974
   7   42454.3    235.5   0.081425461   0.63141   0.49815  -0.55249  -0.27932
   8   43224.7    231.3   0.035241116   0.26841   0.32658   0.30680   0.26005
   9   43627.4    229.2   0.005388491   0.04066   0.13360  -0.02974   0.14808
  10   44140.1    226.6   0.194046569   1.44726   0.71658   0.96576  -0.03306
  11   15936.9    627.5   spin forbidden (mult=3)
  12   16666.2    600.0   spin forbidden (mult=3)
  13   27948.0    357.8   spin forbidden (mult=3)
  14   28290.1    353.5   spin forbidden (mult=3)
  15   31465.4    317.8   spin forbidden (mult=3)
  16   32280.5    309.8   spin forbidden (mult=3)
  17   34905.2    286.5   spin forbidden (mult=3)
  18   35512.6    281.6   spin forbidden (mult=3)
  19   35994.4    277.8   spin forbidden (mult=3)
  20   36235.0    276.0   spin forbidden (mult=3)

FINAL SINGLE POINT ENERGY         6.384870603893

DIPOLE MOMENT
-------------
                                X             Y             Z
Electronic contribution:     64.13358     -68.99097       8.40511
Nuclear contribution   :     -7.70539      31.21247      -4.29524
                        -----------------------------------------
Total Dipole Moment    :     56.42820     -37.77850       4.10987
                        -----------------------------------------
Magnitude (a.u.)       :     68.03122
Magnitude (Debye)      :    172.92163

                             ****ORCA TERMINATED NORMALLY****
TOTAL RUN TIME: 0 days 0 hours 0 minutes 4 seconds 334 msec
