                         Program Version 3.0.3 - RELEASE   -
|  1> !RHF ZINDO/S TightSCF DIIS NoRICO NoMOPrint
|  2> %cis NRoots 10
|  3> MaxDim 25
|  4> triplets true
|  5> end
|  6>
|  7> * xyz 0 1
|  8> C 1.72054 0.80896 -0.14802
|  9> C 1.82358 -0.56519 0.12247
| 10> C 0.70036 -1.37499 0.27512
| 11> C -0.54016 -0.76179 0.14694
| 12> C -0.62133 0.63327 -0.12802
| 13> C 0.48673 1.44515 -0.28046
| 14> O -1.95526 0.97840 -0.20520
| 15> C -2.64410 -0.22171 0.02592
| 16> N -1.86421 -1.24972 0.23371
| 17> H 2.63450 1.39431 -0.25799
| 18> H 2.81523 -1.00852 0.21519
| 19> H 0.77730 -2.44011 0.48466
| 20> H 0.40117 2.50672 -0.48957
| 21> H -3.71237 -0.12463 -0.00106
| 22> **                         ****END OF INPUT****

CARTESIAN COORDINATES (ANGSTROEM)
---------------------------------
  C      1.720540    0.808960   -0.148020
  C      1.823580   -0.565190    0.122470
  C      0.700360   -1.374990    0.275120
  C     -0.540160   -0.761790    0.146940
  C     -0.621330    0.633270   -0.128020
  C      0.486730    1.445150   -0.280460
  O     -1.955260    0.978400   -0.205200
  C     -2.644100   -0.221710    0.025920
  N     -1.864210   -1.249720    0.233710
  H      2.634500    1.394310   -0.257990
  H      2.815230   -1.008520    0.215190
  H      0.777300   -2.440110    0.484660
  H      0.401170    2.506720   -0.489570
  H     -3.712370   -0.124630   -0.001060

 Total Charge           Charge          ....    0
 Multiplicity           Mult            ....    1
 Number of Electrons    NEL             ....   44
 Basis Dimension        Dim             ....   41

ORBITAL ENERGIES
----------------

  NO   OCC          E(Eh)            E(eV)
   0   2.0000      -1.850138       -50.3448
   1   2.0000      -1.567526       -42.6546
   2   2.0000      -1.373488       -37.3745
   3   2.0000      -1.197067       -32.5739
   4   2.0000      -1.138532       -30.9810
   5   2.0000      -0.982410       -26.7327
   6   2.0000      -0.934846       -25.4384
   7   2.0000      -0.922213       -25.0947
   8   2.0000      -0.755216       -20.5505
   9   2.0000      -0.719732       -19.5849
  10   2.0000      -0.682796       -18.5798
  11   2.0000      -0.616037       -16.7632
  12   2.0000      -0.606435       -16.5019
  13   2.0000      -0.571993       -15.5647
  14   2.0000      -0.553004       -15.0480
  15   2.0000      -0.494873       -13.4662
  16   2.0000      -0.484497       -13.1838
  17   2.0000      -0.467994       -12.7348
  18   2.0000      -0.437821       -11.9137
  19   2.0000      -0.408120       -11.1055
  20   2.0000      -0.334819        -9.1109
  21   2.0000      -0.312525        -8.5042
  22   0.0000      -0.007716        -0.2100
  23   0.0000       0.022047         0.5999
  24   0.0000       0.040568         1.1039
  25   0.0000       0.095553         2.6001
  26   0.0000       0.108926         2.9640

MULLIKEN ATOMIC CHARGES
-----------------------
   0 C :   -0.076885
   1 C :   -0.075982
   2 C :   -0.061155
   3 C :    0.130013
   4 C :    0.183098
   5 C :   -0.057603
   6 O :   -0.437760
   7 C :    0.351007
   8 N :   -0.431468
   9 H :    0.072457
  10 H :    0.071400
  11 H :    0.084880
  12 H :    0.088181
  13 H :    0.159815
Sum of atomic charges:    0.0000000

LOEWDIN ATOMIC CHARGES
----------------------
   0 C :   -0.038608
   1 C :   -0.037649
   2 C :   -0.026624
   3 C :    0.090753
   4 C :    0.141056
   5 C :   -0.027354
   6 O :   -0.313790
   7 C :    0.307235
   8 N :   -0.348639
   9 H :    0.032912
  10 H :    0.031905
  11 H :    0.042781
  12 H :    0.045642
  13 H :    0.100378

  Mayer bond orders larger than 0.1
B(  0-C ,  1-C ) :   1.3831 B(  0-C ,  3-C ) :   0.1037 B(  0-C ,  5-C ) :   1.3836
B(  0-C ,  9-H ) :   0.9470 B(  1-C ,  2-C ) :   1.3959 B(  1-C ,  4-C ) :   0.1055
B(  1-C , 10-H ) :   0.9473 B(  2-C ,  3-C ) :   1.3542 B(  2-C ,  5-C ) :   0.1051
B(  2-C , 11-H ) :   0.9445 B(  3-C ,  4-C ) :   1.3290 B(  3-C ,  8-N ) :   1.0739
B(  4-C ,  5-C ) :   1.3843 B(  4-C ,  6-O ) :   0.9499 B(  5-C , 12-H ) :   0.9446
B(  6-O ,  7-C ) :   1.0133 B(  7-C ,  8-N ) :   1.7411 B(  7-C , 13-H ) :   0.9277

-----------------------------------------------------------------------------
         ABSORPTION SPECTRUM VIA TRANSITION ELECTRIC DIPOLE MOMENTS
-----------------------------------------------------------------------------
State   Energy  Wavelength   fosc         T2         TX        TY        TZ
        (cm-1)    (nm)                  (au**2)     (au)      (au)      (au)
-----------------------------------------------------------------------------
   1   33946.4    294.6   0.128329140   1.24454   1.09518   0.20969  -0.03388
   2   36156.4    276.6   0.091995122   0.83764  -0.88580  -0.22696   0.03858
   3   38690.6    258.5   0.005557736   0.04729   0.00260  -0.04229  -0.21330
   4   42343.3    236.2   0.028820698   0.22408  -0.22515  -0.40885   0.07887
   5   44453.9    225.0   0.414413142   3.06902   1.32995  -1.11722   0.22820
   6   47900.5    208.8   0.484536272   3.33013  -1.28815  -1.26980   0.24167
   7   49638.6    201.5   0.000018086   0.00012   0.00880  -0.00230  -0.00610
   8   49842.3    200.6   0.266306819   1.75897   1.18260  -0.58767   0.12277
   9   53264.1    187.7   0.000288951   0.00179  -0.00271   0.00938   0.04112
  10   53742.6    186.1   0.001310457   0.00803  -0.00053   0.01779   0.08781
  11   15564.4    642.5   spin forbidden (mult=3)
  12   21452.5    466.1   spin forbidden (mult=3)
  13   28095.7    355.9   spin forbidden (mult=3)
  14   29050.2    344.2   spin forbidden (mult=3)
  15   32793.3    304.9   spin forbidden (mult=3)
  16   35017.8    285.6   spin forbidden (mult=3)
  17   38554.7    259.4   spin forbidden (mult=3)
  18   40866.9    244.7   spin forbidden (mult=3)
  19   43469.7    230.0   spin forbidden (mult=3)
  20   45428.4    220.1   spin forbidden (mult=3)

FINAL SINGLE POINT ENERGY        -3.275392230324

DIPOLE MOMENT
-------------
                                X             Y             Z
Electronic contribution:    -19.32699      -0.09189      -0.10017
Nuclear contribution   :      2.97268       0.99631      -0.18117
                        -----------------------------------------
Total Dipole Moment    :    -16.35431       0.90442      -0.28134
                        -----------------------------------------
Magnitude (a.u.)       :     16.38171
Magnitude (Debye)      :     41.63901

                             ****ORCA TERMINATED NORMALLY****
TOTAL RUN TIME: 0 days 0 hours 0 minutes 0 seconds 919 msec
